  int64_t   NumberOfElements          {1} = 1280 / 1280
  int64_t   NumberOfVertices          {1} = 900 / 900
  double    P1TestFunction            3*[1]*{900} = -5.40393 / 5.40393
  double    P1VectorTestFunction      3*[1]*{900, 2} = -5.40393 / 5.40393
  string    Software                  attr   = "Data generated with HyTeG (https://i10git.cs.fau.de/hyteg)
git branch         : mohr/buildinfo
SHA1 of last commit: 0855ad807
build type         : Release
compiler           : GNU 13.2.0
compiler flags     : -O3 -DNDEBUG -fdiagnostics-color=always -Wall -Wconversion -Wshadow -Wno-conversion -Wno-float-conversion -Wno-sign-compare -Wno-sign-conversion -Wno-unused-function -Wno-unused-variable -Wno-unused-local-typedefs -Wno-unused-but-set-variable -Wno-comment
mpi version        : Open MPI v5.0.3, package: Open MPI bsofh@spacko Distribution, ident: 5.0.3, repo rev: v5.0.3, Apr 08, 2024
type of real_t     : double
"
  double    StokesTestFunction_p      3*[1]*{900} = 0 / 0
  double    TIME                      3*scalar = 0 / 2
  double    attributeAnotherFP        attr   = 4
  string    attributeBool             attr   = "true"
  string    attributeC-String         attr   = "a 2nd string"
  double    attributeDouble           attr   = -4.567
  double    attributeFP               attr   = 2.3
  float     attributeFloat            attr   = -4.567
  int32_t   attributeIntegerSigned    attr   = -42
  int64_t   attributeIntegerUnsigned  attr   = 42
  int64_t   attributeLongInt          attr   = -256
  string    attributeString           attr   = "this is a user defined attribute"
  int64_t   connectivity              [1]*{1280, 4} = 0 / 899
  uint32_t  types                     scalar = 5
  double    vertices                  [1]*{900, 3} = -1.5 / 1.5
  string    vtk.xml                   attr   = 
<VTKFile type="UnstructuredGrid" version="0.2" byte_order="LittleEndian">
  <UnstructuredGrid>
    <Piece NumberOfPoints="NumberOfVertices" NumberOfCells="NumberOfElements">
      <Points>
        <DataArray Name="vertices" />
      </Points>
      <Cells>
        <DataArray Name="connectivity" />
        <DataArray Name="types" />
      </Cells>
      <PointData>
        <DataArray Name="P1TestFunction" />
        <DataArray Name="StokesTestFunction_p" />
        <DataArray Name="P1VectorTestFunction" />
        <DataArray Name="TIME">TIME</DataArray>
      </PointData>
      <CellData />
    </Piece>
  </UnstructuredGrid>
</VTKFile>

