  int64_t   NumberOfElements        {1} = 3840 / 3840
  int64_t   NumberOfVertices        {1} = 9700 / 9900
  double    P2TestFunction          2*[1]*{9900} = -7.20524 / 7.20524
  double    P2VectorTestFunction    2*[1]*{9900, 3} = -7.20524 / 7.20524
  string    Software                attr   = "Data generated with HyTeG (https://i10git.cs.fau.de/hyteg)
git branch         : mohr/ctest+bpls
SHA1 of last commit: 9975a2458
build type         : DebugOptimized
compiler           : GNU 12.2.0
compiler flags     : -g -O3 -fdiagnostics-color=always -Wall -Wconversion -Wshadow -march=native -Wfloat-equal -Wextra -pedantic -Wno-maybe-uninitialized -Wno-array-bounds -D_GLIBCXX_USE_CXX11_ABI=1 -pthread  -Wno-comment -Wno-stringop-overflow
mpi version        : Open MPI v4.1.4, package: Debian OpenMPI, ident: 4.1.4, repo rev: v4.1.4, May 26, 2022
"
  double    StokesTestFunction_uvw  2*[1]*{9900, 3} = 0 / 0
  double    TIME                    2*scalar = 0 / 1
  int64_t   connectivity            [1]*{3840, 11} = 0 / 9899
  uint32_t  types                   scalar = 24
  double    vertices                [1]*{9900, 3} = -2 / 2
  string    vtk.xml                 attr   = 
<VTKFile type="UnstructuredGrid" version="0.2" byte_order="LittleEndian">
  <UnstructuredGrid>
    <Piece NumberOfPoints="NumberOfVertices" NumberOfCells="NumberOfElements">
      <Points>
        <DataArray Name="vertices" />
      </Points>
      <Cells>
        <DataArray Name="connectivity" />
        <DataArray Name="types" />
      </Cells>
      <PointData>
        <DataArray Name="P2TestFunction" />
        <DataArray Name="P2VectorTestFunction" />
        <DataArray Name="StokesTestFunction_uvw" />
        <DataArray Name="TIME">TIME</DataArray>
      </PointData>
      <CellData />
    </Piece>
  </UnstructuredGrid>
</VTKFile>

