  int64_t   NumberOfElements          {1} = 1280 / 1280
  int64_t   NumberOfVertices          {1} = 900 / 900
  double    P1TestFunction            3*[1]*{900} = -5.40393 / 5.40393
  double    P1VectorTestFunction      3*[1]*{900, 2} = -5.40393 / 5.40393
  string    Software                  attr   = "Data generated with HyTeG (https://i10git.cs.fau.de/hyteg)
git branch         : mohr/ctest+bpls_v2
SHA1 of last commit: dceed1d99
build type         : DebugOptimized
compiler           : GNU 12.2.0
compiler flags     : -g -O3 -fdiagnostics-color=always -Wall -Wconversion -Wshadow -march=native -Wfloat-equal -Wextra -pedantic -Wno-maybe-uninitialized -Wno-array-bounds -D_GLIBCXX_USE_CXX11_ABI=1 -pthread  -Wno-comment -Wno-stringop-overflow
mpi version        : Open MPI v4.1.4, package: Debian OpenMPI, ident: 4.1.4, repo rev: v4.1.4, May 26, 2022
"
  double    StokesTestFunction_p      3*[1]*{900} = 0 / 0
  double    TIME                      3*scalar = 0 / 2
  double    attributeAnotherFP        attr   = 4
  string    attributeBool             attr   = "true"
  string    attributeC-String         attr   = "a 2nd string"
  double    attributeDouble           attr   = -4.567
  double    attributeFP               attr   = 2.3
  float     attributeFloat            attr   = -4.567
  int32_t   attributeIntegerSigned    attr   = -42
  int64_t   attributeIntegerUnsigned  attr   = 42
  int64_t   attributeLongInt          attr   = -256
  string    attributeString           attr   = "this is a user defined attribute"
  int64_t   connectivity              [1]*{1280, 4} = 0 / 899
  uint32_t  types                     scalar = 5
  double    vertices                  [1]*{900, 3} = -1.5 / 1.5
  string    vtk.xml                   attr   = 
<VTKFile type="UnstructuredGrid" version="0.2" byte_order="LittleEndian">
  <UnstructuredGrid>
    <Piece NumberOfPoints="NumberOfVertices" NumberOfCells="NumberOfElements">
      <Points>
        <DataArray Name="vertices" />
      </Points>
      <Cells>
        <DataArray Name="connectivity" />
        <DataArray Name="types" />
      </Cells>
      <PointData>
        <DataArray Name="P1TestFunction" />
        <DataArray Name="StokesTestFunction_p" />
        <DataArray Name="P1VectorTestFunction" />
        <DataArray Name="TIME">TIME</DataArray>
      </PointData>
      <CellData />
    </Piece>
  </UnstructuredGrid>
</VTKFile>
