  int64_t   NumberOfElements          {3} = 384 / 448
  int64_t   NumberOfVertices          {3} = 918 / 1071
  float     P2TestFunction            3*[3]*{__} = -5.40505 / 5.40505
  float     P2VectorTestFunction      3*[3]*{__, 2} = -5.40505 / 5.40505
  string    Software                  attr   = "Data generated with HyTeG (https://i10git.cs.fau.de/hyteg)
git branch         : mohr/buildinfo
SHA1 of last commit: 0855ad807
build type         : Debug
compiler           : Clang 16.0.6
compiler flags     : -g -fcolor-diagnostics -Wall -Wconversion -Wshadow -Wno-shorten-64-to-32 -Wno-sign-conversion -Wno-float-conversion -Wno-unused-function -Wno-unused-variable -Wno-implicit-float-conversion -Wno-unused-local-typedef -Wno-delete-non-abstract-non-virtual-dtor -Wno-unused-but-set-variable -Wno-implicit-int-conversion
mpi version        : Open MPI v5.0.3, package: Open MPI bsofh@spacko Distribution, ident: 5.0.3, repo rev: v5.0.3, Apr 08, 2024
type of real_t     : float
"
  float     StokesTestFunction_uvw    3*[3]*{__, 2} = 0 / 0
  float     TIME                      3*scalar = 0 / 2
  float     attributeAnotherFP        attr   = 4
  string    attributeBool             attr   = "true"
  string    attributeC-String         attr   = "a 2nd string"
  double    attributeDouble           attr   = -4.567
  float     attributeFP               attr   = 2.3
  float     attributeFloat            attr   = -4.567
  int32_t   attributeIntegerSigned    attr   = -42
  int64_t   attributeIntegerUnsigned  attr   = 42
  int64_t   attributeLongInt          attr   = -256
  string    attributeString           attr   = "this is a user defined attribute"
  int64_t   connectivity              [3]*{__, 7} = 0 / 1070
  uint32_t  types                     scalar = 22
  float     vertices                  [3]*{__, 3} = -1.5 / 1.5
  string    vtk.xml                   attr   = 
<VTKFile type="UnstructuredGrid" version="0.2" byte_order="LittleEndian">
  <UnstructuredGrid>
    <Piece NumberOfPoints="NumberOfVertices" NumberOfCells="NumberOfElements">
      <Points>
        <DataArray Name="vertices" />
      </Points>
      <Cells>
        <DataArray Name="connectivity" />
        <DataArray Name="types" />
      </Cells>
      <PointData>
        <DataArray Name="P2TestFunction" />
        <DataArray Name="P2VectorTestFunction" />
        <DataArray Name="StokesTestFunction_uvw" />
        <DataArray Name="TIME">TIME</DataArray>
      </PointData>
      <CellData />
    </Piece>
  </UnstructuredGrid>
</VTKFile>

