  int64_t   NumberOfElements          {3} = 1280 / 1280
  int64_t   NumberOfVertices          {3} = 3300 / 3300
  double    P2TestFunction            3*[3]*{3300} = -7.20524 / 7.20524
  double    P2VectorTestFunction      3*[3]*{3300, 3} = -7.20524 / 7.20524
  string    Software                  attr   = "Data generated with HyTeG (https://i10git.cs.fau.de/hyteg)
git branch         : mohr/buildinfo
SHA1 of last commit: 0855ad807
build type         : Release
compiler           : GNU 13.2.0
compiler flags     : -O3 -DNDEBUG -fdiagnostics-color=always -Wall -Wconversion -Wshadow -Wno-conversion -Wno-float-conversion -Wno-sign-compare -Wno-sign-conversion -Wno-unused-function -Wno-unused-variable -Wno-unused-local-typedefs -Wno-unused-but-set-variable -Wno-comment
mpi version        : Open MPI v5.0.3, package: Open MPI bsofh@spacko Distribution, ident: 5.0.3, repo rev: v5.0.3, Apr 08, 2024
type of real_t     : double
"
  double    StokesTestFunction_uvw    3*[3]*{3300, 3} = 0 / 0
  double    TIME                      3*scalar = 0 / 2
  double    attributeAnotherFP        attr   = 4
  string    attributeBool             attr   = "true"
  string    attributeC-String         attr   = "a 2nd string"
  double    attributeDouble           attr   = -4.567
  double    attributeFP               attr   = 2.3
  float     attributeFloat            attr   = -4.567
  int32_t   attributeIntegerSigned    attr   = -42
  int64_t   attributeIntegerUnsigned  attr   = 42
  int64_t   attributeLongInt          attr   = -256
  string    attributeString           attr   = "this is a user defined attribute"
  int64_t   connectivity              [3]*{1280, 11} = 0 / 3299
  uint32_t  types                     scalar = 24
  double    vertices                  [3]*{3300, 3} = -2 / 2
  string    vtk.xml                   attr   = 
<VTKFile type="UnstructuredGrid" version="0.2" byte_order="LittleEndian">
  <UnstructuredGrid>
    <Piece NumberOfPoints="NumberOfVertices" NumberOfCells="NumberOfElements">
      <Points>
        <DataArray Name="vertices" />
      </Points>
      <Cells>
        <DataArray Name="connectivity" />
        <DataArray Name="types" />
      </Cells>
      <PointData>
        <DataArray Name="P2TestFunction" />
        <DataArray Name="P2VectorTestFunction" />
        <DataArray Name="StokesTestFunction_uvw" />
        <DataArray Name="TIME">TIME</DataArray>
      </PointData>
      <CellData />
    </Piece>
  </UnstructuredGrid>
</VTKFile>

